LAMMPS (7 Dec 2015)
	units real
atom_style full
pair_style lj/cut/coul/dsf 0.05 2.5 10.0
bond_style harmonic
angle_style harmonic
dihedral_style opls
special_bonds lj/coul 0.0 0.0 0.5
boundary p p p
read_data	test.data
  orthogonal box = (-10 -10 -10) to (10 10 10)
  1 by 1 by 1 MPI processor grid
  reading atoms ...
  90 atoms
  scanning bonds ...
  4 = max bonds/atom
  scanning angles ...
  6 = max angles/atom
  scanning dihedrals ...
  6 = max dihedrals/atom
  reading bonds ...
  81 bonds
  reading angles ...
  135 angles
  reading dihedrals ...
  54 dihedrals
  4 = max # of 1-2 neighbors
  6 = max # of 1-3 neighbors
  8 = max # of 1-4 neighbors
  9 = max # of special neighbors
thermo_style multi
thermo 0
velocity all create 300.0 1 rot yes dist gaussian
fix motion all nvt temp 300.0 300.0 100.0
run 10
Neighbor list info ...
  1 neighbor list requests
  update every 1 steps, delay 10 steps, check yes
  max neighbors/atom: 2000, page size: 100000
  master list distance cutoff = 12
  ghost atom cutoff = 12
  binsize = 6 -> bins = 4 4 4
Memory usage per processor = 9.24024 Mbytes
---------------- Step        0 ----- CPU =      0.0000 (sec) ----------------
TotEng   =         8.4933 KinEng   =        79.5876 Temp     =       300.0000 
PotEng   =       -71.0944 E_bond   =         3.6332 E_angle  =         4.6591 
E_dihed  =        11.1377 E_impro  =         0.0000 E_vdwl   =         9.8635 
E_coul   =      -100.3879 E_long   =         0.0000 Press    =      2109.6952 
---------------- Step       10 ----- CPU =      0.0014 (sec) ----------------
TotEng   =        10.3644 KinEng   =        55.5422 Temp     =       209.3624 
PotEng   =       -45.1778 E_bond   =        13.8881 E_angle  =        26.9889 
E_dihed  =        10.3858 E_impro  =         0.0000 E_vdwl   =         3.1205 
E_coul   =       -99.5611 E_long   =         0.0000 Press    =       671.5992 
Loop time of 0.00139713 on 1 procs for 10 steps with 90 atoms

Performance: 618.409 ns/day, 0.039 hours/ns, 7157.515 timesteps/s
71.6% CPU use with 1 MPI tasks x no OpenMP threads

MPI task timing breakdown:
Section |  min time  |  avg time  |  max time  |%varavg| %total
---------------------------------------------------------------
Pair    | 0.0010855  | 0.0010855  | 0.0010855  |   0.0 | 77.70
Bond    | 0.00024271 | 0.00024271 | 0.00024271 |   0.0 | 17.37
Neigh   | 0          | 0          | 0          |   0.0 |  0.00
Comm    | 2.7895e-05 | 2.7895e-05 | 2.7895e-05 |   0.0 |  2.00
Output  | 8.1062e-06 | 8.1062e-06 | 8.1062e-06 |   0.0 |  0.58
Modify  | 2.2411e-05 | 2.2411e-05 | 2.2411e-05 |   0.0 |  1.60
Other   |            | 1.049e-05  |            |       |  0.75

Nlocal:    90 ave 90 max 90 min
Histogram: 1 0 0 0 0 0 0 0 0 0
Nghost:    1007 ave 1007 max 1007 min
Histogram: 1 0 0 0 0 0 0 0 0 0
Neighs:    3663 ave 3663 max 3663 min
Histogram: 1 0 0 0 0 0 0 0 0 0

Total # of neighbors = 3663
Ave neighs/atom = 40.7
Ave special neighs/atom = 7.2
Neighbor list builds = 0
Dangerous builds = 0
Total wall time: 0:00:00
