LAMMPS Description

10 atoms
9 bonds
15 angles
6 dihedrals
0  impropers

4 atom types
3 bond types
4 angle types
1 dihedral types
0  improper types

 -15.0 15.0 xlo xhi
 -15.0 15.0 ylo yhi
 -15.0 15.0 zlo zhi

Masses

1	15.999000
2	12.011000
3	12.011000
4	1.008000


Bond Coeffs

1	570.000000	1.229000
2	340.000000	1.090000
3	317.000000	1.522000

Angle Coeffs

1	70.000000	116.000000
2	80.000000	120.400000
3	33.000000	107.800000
4	35.000000	109.500000

Dihedral Coeffs

1	0.000000	0.000000	0.275000	0.000000

Atoms

1	1	2	-0.18	1.3051	-0.6772	0.0
2	1	3	0.47	0.0	0.0763	0.0
3	1	1	-0.47	0.0	1.2839	0.0
4	1	2	-0.18	-1.3051	-0.6772	0.0
5	1	4	0.06	1.6198	-0.8588	1.0277
6	1	4	0.06	1.1748	-1.6296	-0.5138
7	1	4	0.06	2.0647	-0.0881	-0.5138
8	1	4	0.06	-1.1059	-1.7488	0.0
9	1	4	0.06	-1.8767	-0.4138	0.89
10	1	4	0.06	-1.8767	-0.4138	-0.89

Bonds

1	3	1	2
2	1	2	3
3	3	2	4
4	2	1	5
5	2	1	6
6	2	1	7
7	2	4	8
8	2	4	9
9	2	4	10

Angles

1	4	2	1	5
2	4	2	1	6
3	4	2	1	7
4	3	5	1	6
5	3	5	1	7
6	3	6	1	7
7	2	1	2	3
8	1	1	2	4
9	2	3	2	4
10	4	2	4	8
11	4	2	4	9
12	4	2	4	10
13	3	8	4	9
14	3	8	4	10
15	3	9	4	10

Dihedrals

1	1	1	2	4	9
2	1	1	2	4	10
3	1	4	2	1	7
4	1	4	2	1	6
5	1	1	2	4	8
6	1	4	2	1	5

