 Entering Gaussian System, Link 0=g09
 Initial command:
 /usr/local/gaussian/g09d01/g09/l1.exe "/fs/home/jms875/Documents/perovskites/smrff/gaussian/Gau-14266.inp" -scrdir="/fs/home/jms875/Documents/perovskites/smrff/gaussian/"
 Entering Link 1 = /usr/local/gaussian/g09d01/g09/l1.exe PID=     14267.
  
 Copyright (c) 1988,1990,1992,1993,1995,1998,2003,2009,2013,
            Gaussian, Inc.  All Rights Reserved.
  
 This is part of the Gaussian(R) 09 program.  It is based on
 the Gaussian(R) 03 system (copyright 2003, Gaussian, Inc.),
 the Gaussian(R) 98 system (copyright 1998, Gaussian, Inc.),
 the Gaussian(R) 94 system (copyright 1995, Gaussian, Inc.),
 the Gaussian 92(TM) system (copyright 1992, Gaussian, Inc.),
 the Gaussian 90(TM) system (copyright 1990, Gaussian, Inc.),
 the Gaussian 88(TM) system (copyright 1988, Gaussian, Inc.),
 the Gaussian 86(TM) system (copyright 1986, Carnegie Mellon
 University), and the Gaussian 82(TM) system (copyright 1983,
 Carnegie Mellon University). Gaussian is a federally registered
 trademark of Gaussian, Inc.
  
 This software contains proprietary and confidential information,
 including trade secrets, belonging to Gaussian, Inc.
  
 This software is provided under written license and may be
 used, copied, transmitted, or stored only in accord with that
 written license.
  
 The following legend is applicable only to US Government
 contracts under FAR:
  
                    RESTRICTED RIGHTS LEGEND
  
 Use, reproduction and disclosure by the US Government is
 subject to restrictions as set forth in subparagraphs (a)
 and (c) of the Commercial Computer Software - Restricted
 Rights clause in FAR 52.227-19.
  
 Gaussian, Inc.
 340 Quinnipiac St., Bldg. 40, Wallingford CT 06492
  
  
 ---------------------------------------------------------------
 Warning -- This program may not be used in any manner that
 competes with the business of Gaussian, Inc. or will provide
 assistance to any competitor of Gaussian, Inc.  The licensee
 of this program is prohibited from giving any competitor of
 Gaussian, Inc. access to this program.  By using this program,
 the user acknowledges that Gaussian, Inc. is engaged in the
 business of creating and licensing software in the field of
 computational chemistry and represents and warrants to the
 licensee that it is not a competitor of Gaussian, Inc. and that
 it will not use this program in any manner prohibited above.
 ---------------------------------------------------------------
  

 Cite this work as:
 Gaussian 09, Revision D.01,
 M. J. Frisch, G. W. Trucks, H. B. Schlegel, G. E. Scuseria, 
 M. A. Robb, J. R. Cheeseman, G. Scalmani, V. Barone, B. Mennucci, 
 G. A. Petersson, H. Nakatsuji, M. Caricato, X. Li, H. P. Hratchian, 
 A. F. Izmaylov, J. Bloino, G. Zheng, J. L. Sonnenberg, M. Hada, 
 M. Ehara, K. Toyota, R. Fukuda, J. Hasegawa, M. Ishida, T. Nakajima, 
 Y. Honda, O. Kitao, H. Nakai, T. Vreven, J. A. Montgomery, Jr., 
 J. E. Peralta, F. Ogliaro, M. Bearpark, J. J. Heyd, E. Brothers, 
 K. N. Kudin, V. N. Staroverov, T. Keith, R. Kobayashi, J. Normand, 
 K. Raghavachari, A. Rendell, J. C. Burant, S. S. Iyengar, J. Tomasi, 
 M. Cossi, N. Rega, J. M. Millam, M. Klene, J. E. Knox, J. B. Cross, 
 V. Bakken, C. Adamo, J. Jaramillo, R. Gomperts, R. E. Stratmann, 
 O. Yazyev, A. J. Austin, R. Cammi, C. Pomelli, J. W. Ochterski, 
 R. L. Martin, K. Morokuma, V. G. Zakrzewski, G. A. Voth, 
 P. Salvador, J. J. Dannenberg, S. Dapprich, A. D. Daniels, 
 O. Farkas, J. B. Foresman, J. V. Ortiz, J. Cioslowski, 
 and D. J. Fox, Gaussian, Inc., Wallingford CT, 2013.
 
 ******************************************
 Gaussian 09:  EM64L-G09RevD.01 24-Apr-2013
                29-Jul-2015 
 ******************************************
 %NProcShared=1
 Will use up to    1 processors via shared memory.
 %RWF=/tmp/
 %Chk=PbCl2_0_vac.chk
 %Mem=25MW
 ------------------------------------------------
 #N HSEH1PBE/Def2TZVP Force Geom=Check Guess=Read
 ------------------------------------------------
 1/10=7,29=2,30=1,38=1/1,3;
 2/12=2,40=1/2;
 3/5=44,7=101,11=2,14=-4,16=1,25=1,30=1,71=1,74=-51,116=-2/1,2,3;
 4/5=1/1;
 5/5=2,38=6/2;
 6/7=2,8=2,9=2,10=2,28=1/1;
 7/29=1/1,2,3,16;
 1/10=7,30=1/3;
 99//99;
 ------------------
 run by gaussian.py
 ------------------
 Structure from the checkpoint file:  "PbCl2_0_vac.chk"
 Charge =  0 Multiplicity = 1
 No Z-Matrix found in file; cartesian coordinates used.
  Pb                                                3.625699000000      2.284807000000      1.535627000000
  Cl                                                1.195259000000      1.772364000000     -0.074954000000
  Cl                                                5.699082000000      1.736313000000     -0.544226000000
 Recover connectivity data from disk.

 GradGradGradGradGradGradGradGradGradGradGradGradGradGradGradGradGradGrad
 Berny optimization.
 Initialization pass.
 Trust Radius=3.00D-01 FncErr=1.00D-07 GrdErr=1.00D-07
 Number of steps in this run=      2 maximum allowed number of steps=      2.
 GradGradGradGradGradGradGradGradGradGradGradGradGradGradGradGradGradGrad

                          Input orientation:                          
 ---------------------------------------------------------------------
 Center     Atomic      Atomic             Coordinates (Angstroms)
 Number     Number       Type             X           Y           Z
 ---------------------------------------------------------------------
      1         82           0        3.625699    2.284807    1.535627
      2         17           0        1.195259    1.772364   -0.074954
      3         17           0        5.699082    1.736313   -0.544226
 ---------------------------------------------------------------------
                    Distance matrix (angstroms):
                    1          2          3
     1  Pb   0.000000
     2  Cl   2.960339   0.000000
     3  Cl   2.987566   4.528348   0.000000
 Stoichiometry    Cl2Pb
 Framework group  CS[SG(Cl2Pb)]
 Deg. of freedom     3
 Full point group                 CS      NOp   2
 Largest Abelian subgroup         CS      NOp   2
 Largest concise Abelian subgroup C1      NOp   1
                         Standard orientation:                         
 ---------------------------------------------------------------------
 Center     Atomic      Atomic             Coordinates (Angstroms)
 Number     Number       Type             X           Y           Z
 ---------------------------------------------------------------------
      1         82           0        0.000000    0.565173    0.000000
      2         17           0        2.264077   -1.342067    0.000000
      3         17           0       -2.264077   -1.384060    0.000000
 ---------------------------------------------------------------------
 Rotational constants (GHZ):      2.5975471      1.4094246      0.9136693
 Standard basis: def2TZVP (5D, 7F)
 There are    98 symmetry adapted cartesian basis functions of A'  symmetry.
 There are    45 symmetry adapted cartesian basis functions of A"  symmetry.
 There are    83 symmetry adapted basis functions of A'  symmetry.
 There are    41 symmetry adapted basis functions of A"  symmetry.
   124 basis functions,   243 primitive gaussians,   143 cartesian basis functions
    28 alpha electrons       28 beta electrons
       nuclear repulsion energy       166.8721026016 Hartrees.
 NAtoms=    3 NActive=    3 NUniq=    3 SFac= 1.00D+00 NAtFMM=   60 NAOKFM=F Big=F
 Integral buffers will be    131072 words long.
 Raffenetti 2 integral format.
 Two-electron integral symmetry is turned on.
 One-electron integrals computed using PRISM.
   1 Symmetry operations used in ECPInt.
 ECPInt:  NShTT=     903 NPrTT=    3586 LenC2=     846 LenP2D=    2684.
 LDataN:  DoStor=T MaxTD1= 8 Len=  415
 NBasis=   124 RedAO= T EigKep=  1.22D-02  NBF=    83    41
 NBsUse=   124 1.00D-06 EigRej= -1.00D+00 NBFU=    83    41
 Defaulting to unpruned grid for atomic number  82.
 Initial guess from the checkpoint file:  "PbCl2_0_vac.chk"
 B after Tr=     0.000000    0.000000    0.000000
         Rot=    1.000000    0.000000    0.000000    0.000000 Ang=   0.00 deg.
 Initial guess orbital symmetries:
       Occupied  (A') (A') (A') (A') (A') (A') (A") (A') (A") (A')
                 (A') (A") (A') (A') (A') (A") (A") (A') (A') (A')
                 (A') (A') (A') (A') (A") (A') (A") (A')
       Virtual   (A") (A') (A') (A') (A') (A") (A') (A') (A") (A")
                 (A') (A') (A') (A') (A') (A") (A') (A") (A') (A")
                 (A") (A') (A') (A') (A') (A") (A") (A') (A') (A')
                 (A") (A') (A') (A') (A') (A') (A') (A') (A') (A')
                 (A') (A') (A') (A') (A') (A') (A') (A') (A') (A')
                 (A') (A') (A') (A') (A') (A') (A') (A') (A') (A')
                 (A') (A') (A') (A') (A') (A') (A') (A') (A') (A')
                 (A') (A') (A') (A") (A") (A") (A") (A") (A") (A")
                 (A") (A") (A") (A") (A") (A") (A") (A") (A") (A")
                 (A") (A") (A") (A") (A") (A")
 Requested convergence on RMS density matrix=1.00D-08 within 128 cycles.
 Requested convergence on MAX density matrix=1.00D-06.
 Requested convergence on             energy=1.00D-06.
 No special actions if energy rises.
 Defaulting to unpruned grid for atomic number  82.
 SCF Done:  E(RHSEH1PBE) =  -1113.08799667     A.U. after   12 cycles
            NFock= 12  Conv=0.69D-08     -V/T= 2.1343

 **********************************************************************

            Population analysis using the SCF density.

 **********************************************************************

 Orbital symmetries:
       Occupied  (A') (A') (A') (A') (A') (A') (A") (A') (A") (A')
                 (A') (A") (A') (A') (A') (A") (A") (A') (A') (A')
                 (A') (A') (A') (A') (A") (A') (A") (A')
       Virtual   (A") (A') (A') (A') (A") (A') (A') (A") (A") (A')
                 (A') (A') (A') (A') (A') (A") (A") (A') (A') (A")
                 (A") (A') (A") (A') (A") (A') (A') (A') (A") (A')
                 (A') (A") (A") (A") (A') (A') (A') (A') (A') (A")
                 (A") (A') (A') (A') (A') (A') (A") (A") (A') (A')
                 (A") (A") (A') (A') (A') (A") (A') (A") (A') (A")
                 (A') (A') (A") (A') (A') (A") (A') (A") (A") (A')
                 (A') (A") (A') (A") (A') (A') (A") (A') (A") (A')
                 (A') (A') (A') (A') (A") (A") (A') (A') (A') (A')
                 (A') (A') (A") (A') (A') (A')
 The electronic state is 1-A'.
 Alpha  occ. eigenvalues -- -101.65127-101.64856  -9.46715  -9.46440  -7.19694
 Alpha  occ. eigenvalues --   -7.19423  -7.19300  -7.19227  -7.19024  -7.18951
 Alpha  occ. eigenvalues --   -5.63528  -3.46367  -3.45703  -3.45659  -0.95417
 Alpha  occ. eigenvalues --   -0.95174  -0.95101  -0.94515  -0.94452  -0.75581
 Alpha  occ. eigenvalues --   -0.75131  -0.55151  -0.31151  -0.29918  -0.28430
 Alpha  occ. eigenvalues --   -0.27885  -0.27749  -0.27437
 Alpha virt. eigenvalues --   -0.17531  -0.13354  -0.12349   0.06526   0.06793
 Alpha virt. eigenvalues --    0.07043   0.12327   0.13383   0.13423   0.14417
 Alpha virt. eigenvalues --    0.19649   0.20010   0.35925   0.37725   0.39054
 Alpha virt. eigenvalues --    0.39421   0.40482   0.41687   0.41907   0.43640
 Alpha virt. eigenvalues --    0.44364   0.46117   0.46656   0.46812   0.47018
 Alpha virt. eigenvalues --    0.47962   0.48207   0.49197   0.58086   0.58233
 Alpha virt. eigenvalues --    0.58366   0.61331   0.65261   0.65870   0.65951
 Alpha virt. eigenvalues --    0.66100   0.67118   0.67935   0.89161   0.89605
 Alpha virt. eigenvalues --    0.90054   0.93505   0.95068   1.01840   1.02402
 Alpha virt. eigenvalues --    1.75884   1.76635   1.76961   1.77565   1.77847
 Alpha virt. eigenvalues --    1.78199   1.79068   1.81223   1.85571   1.88489
 Alpha virt. eigenvalues --    1.95897   1.97795   1.98029   1.98205   1.98729
 Alpha virt. eigenvalues --    2.01096   2.01590   2.11919   2.11931   2.12163
 Alpha virt. eigenvalues --    2.12593   2.12602   2.12691   2.12873   2.12876
 Alpha virt. eigenvalues --    2.15837   2.16310   2.17275   2.18421   2.23745
 Alpha virt. eigenvalues --    2.24756   2.25812   2.26339   2.27106   2.28547
 Alpha virt. eigenvalues --    2.40294   2.41307   2.64741  10.75529  10.75769
 Alpha virt. eigenvalues --   10.76811  10.77347  10.78252  10.80067  24.39134
 Alpha virt. eigenvalues --   24.42440  35.11304  35.52095  35.56359  35.59020
 Alpha virt. eigenvalues --  124.76468
          Condensed to atoms (all electrons):
               1          2          3
     1  Pb  20.675928   0.207498   0.204562
     2  Cl   0.207498  17.247760  -0.002011
     3  Cl   0.204562  -0.002011  17.256213
 Mulliken charges:
               1
     1  Pb   0.912012
     2  Cl  -0.453248
     3  Cl  -0.458764
 Sum of Mulliken charges =   0.00000
 Mulliken charges with hydrogens summed into heavy atoms:
               1
     1  Pb   0.912012
     2  Cl  -0.453248
     3  Cl  -0.458764
 Electronic spatial extent (au):  <R**2>=           1004.0312
 Charge=              0.0000 electrons
 Dipole moment (field-independent basis, Debye):
    X=              0.0797    Y=              7.7712    Z=              0.0000  Tot=              7.7716
 Quadrupole moment (field-independent basis, Debye-Ang):
   XX=            -70.6389   YY=            -55.5727   ZZ=            -49.8720
   XY=             -0.2875   XZ=              0.0000   YZ=              0.0000
 Traceless Quadrupole moment (field-independent basis, Debye-Ang):
   XX=            -11.9444   YY=              3.1218   ZZ=              8.8225
   XY=             -0.2875   XZ=              0.0000   YZ=              0.0000
 Octapole moment (field-independent basis, Debye-Ang**2):
  XXX=              0.6896  YYY=             79.7065  ZZZ=              0.0000  XYY=              0.5997
  XXY=             42.4102  XXZ=              0.0000  XZZ=              0.0727  YZZ=             26.1165
  YYZ=              0.0000  XYZ=              0.0000
 Hexadecapole moment (field-independent basis, Debye-Ang**3):
 XXXX=           -975.4816 YYYY=           -412.5157 ZZZZ=            -57.9744 XXXY=             -5.5966
 XXXZ=              0.0000 YYYX=             -4.8559 YYYZ=              0.0000 ZZZX=              0.0000
 ZZZY=              0.0000 XXYY=           -230.6645 XXZZ=           -163.0835 YYZZ=            -77.8056
 XXYZ=              0.0000 YYXZ=              0.0000 ZZXY=             -1.4266
 N-N= 1.668721026016D+02 E-N=-2.921846050130D+03  KE= 9.812956508244D+02
 Symmetry A'   KE= 8.698652989829D+02
 Symmetry A"   KE= 1.114303518415D+02
   2 Symmetry operations used in ECPInt.
 ECPInt:  NShTT=     903 NPrTT=    3586 LenC2=     846 LenP2D=    2684.
 LDataN:  DoStor=T MaxTD1= 9 Len=  602
 Calling FoFJK, ICntrl=      2127 FMM=F ISym2X=1 I1Cent= 0 IOpClX= 0 NMat=1 NMatS=1 NMatT=0.
 Defaulting to unpruned grid for atomic number  82.
 ***** Axes restored to original set *****
 -------------------------------------------------------------------
 Center     Atomic                   Forces (Hartrees/Bohr)
 Number     Number              X              Y              Z
 -------------------------------------------------------------------
      1       82          -0.006279320   -0.017405819   -0.060513473
      2       17           0.037287655    0.008477678    0.026867287
      3       17          -0.031008335    0.008928141    0.033646187
 -------------------------------------------------------------------
 Cartesian Forces:  Max     0.060513473 RMS     0.030480702

 GradGradGradGradGradGradGradGradGradGradGradGradGradGradGradGradGradGrad
 Berny optimization.
 Search for a local minimum.
 Step number   1 out of a maximum of    2
 All quantities printed in internal units (Hartrees-Bohrs-Radians)
 Second derivative matrix not updated -- first step.
 The second derivative matrix:
                          X1        Y1        Z1        X2        Y2
           X1           0.05653
           Y1          -0.01860   0.92874
           Z1           0.00667  -0.24828   0.12950
           X2          -0.03260  -0.00511  -0.01542   0.03629
           Y2          -0.00725  -0.00219  -0.00712  -0.01405   0.92613
           Z2          -0.02294  -0.00729  -0.02379   0.02415  -0.25777
           X3          -0.02349   0.00362   0.01448  -0.00325   0.00122
           Y3           0.00577  -0.00226  -0.00837  -0.00093   0.00035
           Z3           0.02200  -0.00821  -0.03043  -0.00300   0.00112
                          Z2        X3        Y3        Z3
           Z2           0.09490
           X3           0.00452   0.02717
           Y3           0.00129  -0.02493   0.92620
           Z3           0.00416  -0.01327  -0.25669   0.10154
 ITU=  0
     Eigenvalues ---    0.02287   0.09876   0.10460
 Quadratic step=1.104D+00 exceeds max=3.000D-01 adjusted using Lamda=-2.075D-01.
 Angle between NR and scaled steps=  22.90 degrees.
 Angle between quadratic step and forces=   4.24 degrees.
 ClnCor:  largest displacement from symmetrization is 2.30D-16 for atom     1.
 Linear search not attempted -- first point.
 ClnCor:  largest displacement from symmetrization is 5.21D-15 for atom     2.
 TrRot= -0.000806 -0.002412 -0.008392  0.000787  0.000001 -0.000788
 Variable       Old X    -DE/DX   Delta X   Delta X   Delta X     New X
                                 (Linear)    (Quad)   (Total)
    X1        6.85158  -0.00628   0.00000  -0.01753  -0.01833   6.83324
    Y1        4.31766  -0.01741   0.00000  -0.05266  -0.05507   4.26259
    Z1        2.90191  -0.06051   0.00000  -0.18318  -0.19158   2.71034
    X2        2.25871   0.03729   0.00000   0.13121   0.13041   2.38912
    Y2        3.34928   0.00848   0.00000   0.02896   0.02654   3.37582
    Z2       -0.14164   0.02687   0.00000   0.09147   0.08307  -0.05857
    X3       10.76970  -0.03101   0.00000  -0.11127  -0.11207  10.65763
    Y3        3.28116   0.00893   0.00000   0.03095   0.02853   3.30969
    Z3       -1.02844   0.03365   0.00000   0.11691   0.10850  -0.91993
         Item               Value     Threshold  Converged?
 Maximum Force            0.060513     0.000450     NO 
 RMS     Force            0.030481     0.000300     NO 
 Maximum Displacement     0.191579     0.001800     NO 
 RMS     Displacement     0.099906     0.001200     NO 
 Predicted change in Energy=-2.302984D-02
 GradGradGradGradGradGradGradGradGradGradGradGradGradGradGradGradGradGrad

 1\1\GINC-RIBOT\Force\RHSEH1PBE\def2TZVP\Cl2Pb1\JMS875\29-Jul-2015\0\\#
 N HSEH1PBE/Def2TZVP Force Geom=Check Guess=Read\\run by gaussian.py\\0
 ,1\Pb,3.625699,2.284807,1.535627\Cl,1.195259,1.772364,-0.074954\Cl,5.6
 99082,1.736313,-0.544226\\Version=EM64L-G09RevD.01\State=1-A'\HF=-1113
 .0879967\RMSD=6.942e-09\RMSF=3.048e-02\Dipole=0.2518607,0.8412797,2.92
 87446\Quadrupole=-8.7381783,6.2374879,2.5006904,0.0336291,1.2826775,-1
 .1303887\PG=CS [SG(Cl2Pb1)]\\@


 I WANT IT ALL - RICH, THIN, AND CHOCOLATE.
 Job cpu time:       0 days  0 hours  0 minutes 33.6 seconds.
 File lengths (MBytes):  RWF=     10 Int=      0 D2E=      0 Chk=      2 Scr=      1
 Normal termination of Gaussian 09 at Wed Jul 29 11:50:05 2015.
